 &FCI NORB= 13,NELEC= 8,MS2= 0,
  ORBSYM=1,1,1,1,1,1,1,1,1,1,1,1,1,
  ISYM=1,
 &END
    1.02254825309      1  1  1  1
   0.160342323850E-16  2  1  1  1
   0.200487910684      2  1  2  1
   0.993758390426      2  2  1  1
   0.501343389999E-16  2  2  2  1
    1.04101283754      2  2  2  2
   0.158580361958E-16  3  1  1  1
   0.220873032837E-17  3  1  2  1
   0.727490852378E-17  3  1  2  2
   0.200487910684      3  1  3  1
   0.166597283823E-16  3  2  1  1
   0.125787851595E-16  3  2  2  1
   0.123130394336E-16  3  2  2  2
   0.313470185280E-16  3  2  3  1
   0.516756300990E-01  3  2  3  2
   0.993758390426      3  3  1  1
   0.572521491762E-16  3  3  2  1
   0.937661577338      3  3  2  2
  -0.608911752160E-16  3  3  3  1
   0.205998412772E-16  3  3  3  2
    1.04101283754      3  3  3  3
   0.554894078745E-17  4  1  1  1
  -0.114681536801E-14  4  1  2  1
   0.150706575634E-18  4  1  2  2
  -0.132381581564E-14  4  1  3  1
  -0.343408964349E-16  4  1  3  2
   0.219646097443E-16  4  1  3  3
   0.200487910682      4  1  4  1
  -0.378885025706E-15  4  2  1  1
   0.331241206845E-17  4  2  2  1
   0.176386874804E-15  4  2  2  2
  -0.160461951145E-16  4  2  3  1
   0.889723407796E-17  4  2  3  2
   0.158009991362E-15  4  2  3  3
   0.629774642154E-17  4  2  4  1
   0.516756300990E-01  4  2  4  2
  -0.457897299773E-15  4  3  1  1
  -0.343893784953E-16  4  3  2  1
   0.160516380596E-15  4  3  2  2
   0.195583637122E-16  4  3  3  1
   0.910158077648E-17  4  3  3  2
   0.178430432068E-15  4  3  3  3
  -0.671436095967E-17  4  3  4  1
   0.847439920116E-18  4  3  4  2
   0.516756300990E-01  4  3  4  3
   0.993758390425      4  4  1  1
   0.265194626746E-16  4  4  2  1
   0.937661577338      4  4  2  2
  -0.345403788739E-17  4  4  3  1
   0.162214055501E-16  4  4  3  2
   0.937661577338      4  4  3  3
  -0.422455812883E-16  4  4  4  1
   0.176342095223E-15  4  4  4  2
   0.178310599792E-15  4  4  4  3
    1.04101283754      4  4  4  4
  -0.128370600593E-16  5  1  1  1
  -0.346951643516E-04  5  1  2  1
  -0.101286078536E-16  5  1  2  2
  -0.371879087743E-04  5  1  3  1
   0.100207785607E-16  5  1  3  2
  -0.164504554299E-16  5  1  3  3
  -0.576584752205E-01  5  1  4  1
  -0.632733381362E-17  5  1  4  2
   0.152535980232E-17  5  1  4  3
  -0.350359416149E-18  5  1  4  4
   0.500786461256E-01  5  1  5  1
  -0.160163227237E-03  5  2  1  1
  -0.123540266531E-17  5  2  2  1
  -0.170592329157E-03  5  2  2  2
   0.498451897818E-17  5  2  3  1
  -0.104378622689E-04  5  2  3  2
  -0.151115926271E-03  5  2  3  3
  -0.155748604857E-16  5  2  4  1
  -0.161835188592E-01  5  2  4  2
   0.238636500335E-17  5  2  4  3
  -0.151115926271E-03  5  2  4  4
   0.276835126546E-17  5  2  5  1
   0.212562759266E-01  5  2  5  2
  -0.171670479008E-03  5  3  1  1
   0.118393716236E-16  5  3  2  1
  -0.161973156361E-03  5  3  2  2
  -0.654772434659E-17  5  3  3  1
  -0.973820144326E-05  5  3  3  2
  -0.182848880899E-03  5  3  3  3
   0.110739280558E-17  5  3  4  1
   0.122955341915E-17  5  3  4  2
  -0.161835188592E-01  5  3  4  3
  -0.161973156361E-03  5  3  4  4
  -0.860083143166E-18  5  3  5  1
   0.691158428654E-07  5  3  5  2
   0.212562855252E-01  5  3  5  3
  -0.266168719517      5  4  1  1
  -0.171361682121E-16  5  4  2  1
  -0.251133379914      5  4  2  2
   0.195995460302E-18  5  4  3  1
   0.287694533740E-17  5  4  3  2
  -0.251133379914      5  4  3  3
   0.737619171381E-17  5  4  4  1
  -0.973820144332E-05  5  4  4  2
  -0.104378622689E-04  5  4  4  3
  -0.283500417633      5  4  4  4
   0.522504783195E-17  5  4  5  1
   0.107161554510E-03  5  4  5  2
   0.114860793651E-03  5  4  5  3
   0.199343617885      5  4  5  4
   0.790171485306      5  5  1  1
   0.169682803169E-16  5  5  2  1
   0.759604428025      5  5  2  2
  -0.781507657674E-18  5  5  3  1
   0.263736800434E-07  5  5  3  2
   0.759604431688      5  5  3  3
   0.468537665605E-17  5  5  4  1
   0.408914140723E-04  5  5  4  2
   0.438293406182E-04  5  5  4  3
   0.827560172734      5  5  4  4
  -0.839141079813E-17  5  5  5  1
  -0.111413225027E-03  5  5  5  2
  -0.119417934058E-03  5  5  5  3
  -0.185153083861      5  5  5  4
   0.716873751706      5  5  5  5
   0.316101217006E-16  6  1  1  1
  -0.523303177657E-01  6  1  2  1
   0.555831586828E-17  6  1  2  2
  -0.242082212362E-01  6  1  3  1
   0.150822465969E-16  6  1  3  2
   0.172381847686E-16  6  1  3  3
   0.471025653728E-04  6  1  4  1
   0.742368144289E-17  6  1  4  2
   0.709925219371E-17  6  1  4  3
   0.499004556537E-16  6  1  4  4
   0.148494574667E-16  6  1  5  1
  -0.935018599828E-18  6  1  5  2
  -0.466323389867E-17  6  1  5  3
  -0.264260007746E-16  6  1  5  4
   0.312661699335E-16  6  1  5  5
   0.500786461260E-01  6  1  6  1
  -0.241572355463      6  2  1  1
  -0.483956105555E-16  6  2  2  1
  -0.257302450065      6  2  2  2
   0.404627471366E-16  6  2  3  1
  -0.679473751989E-02  6  2  3  2
  -0.227926415363      6  2  3  3
   0.179028525928E-16  6  2  4  1
   0.132206974274E-04  6  2  4  2
  -0.427715904161E-16  6  2  4  3
  -0.227926415363      6  2  4  4
   0.933172944048E-18  6  2  5  1
   0.972588709195E-04  6  2  5  2
   0.971741470532E-04  6  2  5  3
   0.142338598061      6  2  5  4
  -0.158052810100      6  2  5  5
  -0.215681863159E-16  6  2  6  1
   0.167950649031      6  2  6  2
  -0.111752369856      6  3  1  1
   0.368273433117E-16  6  3  2  1
  -0.105439701578      6  3  2  2
  -0.197438025855E-16  6  3  3  1
  -0.146880173508E-01  6  3  3  2
  -0.119029176618      6  3  3  3
   0.865381241876E-17  6  3  4  1
  -0.264342042179E-16  6  3  4  2
   0.132206974275E-04  6  3  4  3
  -0.105439701578      6  3  4  4
  -0.248512053785E-17  6  3  5  1
   0.520648402018E-04  6  3  5  2
   0.482249225796E-04  6  3  5  3
   0.658464172647E-01  6  3  5  4
  -0.731158830536E-01  6  3  5  5
  -0.234985908724E-16  6  3  6  1
   0.678614529819E-01  6  3  6  2
   0.526492000135E-01  6  3  6  3
   0.217439491127E-03  6  4  1  1
   0.167442806290E-16  6  4  2  1
   0.205156768356E-03  6  4  2  2
   0.278021304269E-17  6  4  3  1
  -0.621044556927E-17  6  4  3  2
   0.205156768356E-03  6  4  3  3
   0.487692608342E-16  6  4  4  1
  -0.146880173508E-01  6  4  4  2
  -0.679473751989E-02  6  4  4  3
   0.231598163211E-03  6  4  4  4
  -0.195548331750E-16  6  4  5  1
   0.192918558151E-01  6  4  5  2
   0.892444524846E-02  6  4  5  3
  -0.145483793499E-03  6  4  5  4
   0.142263474373E-03  6  4  5  5
  -0.599382289146E-17  6  4  6  1
  -0.132039793198E-03  6  4  6  2
  -0.610821539410E-04  6  4  6  3
   0.212563302928E-01  6  4  6  4
  -0.332883660762E-16  6  5  1  1
  -0.211164872443E-17  6  5  2  1
   0.371126826381E-04  6  5  2  2
  -0.485822558147E-17  6  5  3  1
   0.284737994539E-04  6  5  3  2
   0.184019846215E-04  6  5  3  3
  -0.324036338668E-16  6  5  4  1
   0.308380083111E-01  6  5  4  2
   0.142657798967E-01  6  5  4  3
  -0.555146672597E-04  6  5  4  4
   0.121162834125E-16  6  5  5  1
  -0.499523853332E-02  6  5  5  2
  -0.231081798669E-02  6  5  5  3
   0.449621863432E-05  6  5  5  4
  -0.264370527897E-13  6  5  5  5
   0.669984147124E-17  6  5  6  1
  -0.331185877572E-05  6  5  6  2
  -0.354980597935E-05  6  5  6  3
  -0.550384269568E-02  6  5  6  4
   0.329686724616E-01  6  5  6  5
   0.790171485307      6  6  1  1
  -0.146347657310E-16  6  6  2  1
   0.815581036240      6  6  2  2
  -0.347682978897E-16  6  6  3  1
   0.258950216480E-01  6  6  3  2
   0.771583547436      6  6  3  3
  -0.978658535278E-17  6  6  4  1
  -0.503846167836E-04  6  6  4  2
  -0.233081319219E-04  6  6  4  3
   0.759604448770      6  6  4  4
  -0.562719660747E-18  6  6  5  1
  -0.104789507442E-03  6  6  5  2
  -0.112318322047E-03  6  6  5  3
  -0.174145398383      6  6  5  4
   0.650936406392      6  6  5  5
   0.377118468837E-16  6  6  6  1
  -0.168043287233      6  6  6  2
  -0.777375190338E-01  6  6  6  3
   0.151255911664E-03  6  6  6  4
   0.194531568724E-13  6  6  6  5
   0.716873751599      6  6  6  6
  -0.730515816380E-16  7  1  1  1
   0.242082421981E-01  7  1  2  1
  -0.726620742003E-16  7  1  2  2
  -0.523303257506E-01  7  1  3  1
   0.149716196589E-16  7  1  3  2
  -0.610005411529E-16  7  1  3  3
   0.191844552633E-04  7  1  4  1
   0.122319548446E-16  7  1  4  2
  -0.131883131171E-16  7  1  4  3
  -0.372710016641E-16  7  1  4  4
  -0.694558456994E-18  7  1  5  1
  -0.433992030092E-17  7  1  5  2
   0.819059090625E-17  7  1  5  3
   0.355035795689E-16  7  1  5  4
  -0.289777159078E-16  7  1  5  5
  -0.311511669317E-16  7  1  6  1
   0.274679330929E-16  7  1  6  2
   0.184473237451E-16  7  1  6  3
  -0.307032564480E-18  7  1  6  4
   0.312328588673E-17  7  1  6  5
  -0.282246347875E-16  7  1  6  6
   0.500786461260E-01  7  1  7  1
   0.111752466622      7  2  1  1
  -0.260049105657E-16  7  2  2  1
   0.119029279685      7  2  2  2
   0.356726507044E-16  7  2  3  1
  -0.146880195920E-01  7  2  3  2
   0.105439792878      7  2  3  3
   0.254877558620E-16  7  2  4  1
   0.538467228570E-05  7  2  4  2
   0.126491929876E-16  7  2  4  3
   0.105439792878      7  2  4  4
  -0.102567272661E-16  7  2  5  1
  -0.449923945364E-04  7  2  5  2
  -0.308602716823E-04  7  2  5  3
  -0.658464897363E-01  7  2  5  4
   0.731159463644E-01  7  2  5  5
   0.149201244910E-16  7  2  6  1
  -0.678615117548E-01  7  2  6  2
  -0.101368125404E-01  7  2  6  3
   0.473726222035E-04  7  2  6  4
   0.202208829718E-14  7  2  6  5
   0.731159463939E-01  7  2  6  6
  -0.463069583136E-16  7  2  7  1
   0.526492543797E-01  7  2  7  2
  -0.241572392324      7  3  1  1
   0.332886662507E-16  7  3  2  1
  -0.227926450142      7  3  2  2
  -0.245952642998E-16  7  3  3  1
   0.679474340343E-02  7  3  3  2
  -0.257302489326      7  3  3  3
  -0.194746408548E-16  7  3  4  1
  -0.510998036420E-16  7  3  4  2
   0.538467228563E-05  7  3  4  3
  -0.227926450142      7  3  4  4
   0.143538265813E-16  7  3  5  1
   0.798941931032E-04  7  3  5  2
   0.104246647586E-03  7  3  5  3
   0.142338625668      7  3  5  4
  -0.158052834217      7  3  5  5
  -0.180844071906E-16  7  3  6  1
   0.125438256735      7  3  6  2
   0.678614633486E-01  7  3  6  3
  -0.119249196504E-03  7  3  6  4
  -0.705170175182E-15  7  3  6  5
  -0.158052834229      7  3  6  6
   0.662076468908E-16  7  3  7  1
  -0.678615220977E-01  7  3  7  2
   0.167950693798      7  3  7  3
   0.885611676770E-04  7  4  1  1
   0.260447989076E-16  7  4  2  1
   0.835585241129E-04  7  4  2  2
  -0.158802797162E-16  7  4  3  1
  -0.470865615379E-17  7  4  3  2
   0.835585241129E-04  7  4  3  3
   0.487826590971E-16  7  4  4  1
   0.679474340343E-02  7  4  4  2
  -0.146880195920E-01  7  4  4  3
   0.943278686842E-04  7  4  4  4
  -0.344575206458E-17  7  4  5  1
  -0.892456700863E-02  7  4  5  2
   0.192919021971E-01  7  4  5  3
  -0.592542530492E-04  7  4  5  4
   0.579426457558E-04  7  4  5  5
  -0.421665458186E-17  7  4  6  1
  -0.400690468487E-04  7  4  6  2
  -0.376688339899E-04  7  4  6  3
   0.484061938306E-07  7  4  6  4
  -0.243944702988E-17  7  4  6  5
   0.579426457479E-04  7  4  6  6
   0.992560275002E-17  7  4  7  1
   0.248782386878E-04  7  4  7  2
  -0.537786397103E-04  7  4  7  3
   0.212562311590E-01  7  4  7  4
   0.198007943104E-17  7  5  1  1
  -0.105953638056E-16  7  5  2  1
  -0.171684952105E-04  7  5  2  2
   0.141226126640E-16  7  5  3  1
   0.935534387267E-05  7  5  3  2
   0.397791246331E-04  7  5  3  3
   0.140103231802E-16  7  5  4  1
  -0.142658169549E-01  7  5  4  2
   0.308380224276E-01  7  5  4  3
  -0.226106294226E-04  7  5  4  4
   0.567062952785E-17  7  5  5  1
   0.231081998762E-02  7  5  5  2
  -0.499523929553E-02  7  5  5  3
   0.183126979251E-05  7  5  5  4
   0.129420297475E-14  7  5  5  5
   0.175394586024E-17  7  5  6  1
   0.203443319358E-14  7  5  6  2
  -0.737169438803E-15  7  5  6  3
   0.135316070604E-16  7  5  6  4
   0.101157762013E-16  7  5  6  5
  -0.691879559238E-14  7  5  6  6
  -0.103771378458E-16  7  5  7  1
  -0.331185877204E-05  7  5  7  2
  -0.354980598073E-05  7  5  7  3
  -0.550384269568E-02  7  5  7  4
   0.329686724616E-01  7  5  7  5
  -0.284507056528E-15  7  6  1  1
   0.215096368486E-16  7  6  2  1
  -0.258950440704E-01  7  6  2  2
  -0.555978894233E-18  7  6  3  1
   0.219987434862E-01  7  6  3  2
   0.258950255992E-01  7  6  3  3
  -0.358238489919E-17  7  6  4  1
   0.139347326983E-05  7  6  4  2
  -0.299389094816E-04  7  6  4  3
   0.184711551238E-07  7  6  4  4
   0.216751352264E-17  7  6  5  1
   0.203605195295E-14  7  6  5  2
  -0.737348056876E-15  7  6  5  3
  -0.208298396350E-16  7  6  5  4
   0.277511034191E-15  7  6  5  5
   0.106719697463E-16  7  6  6  1
   0.231082001716E-02  7  6  6  2
  -0.499523930796E-02  7  6  6  3
   0.183126978458E-05  7  6  6  4
  -0.692130605885E-14  7  6  6  5
  -0.970898452082E-10  7  6  6  6
   0.673854114557E-17  7  6  7  1
  -0.499523854575E-02  7  6  7  2
  -0.231081801623E-02  7  6  7  3
   0.449621865340E-05  7  6  7  4
   0.688340985773E-14  7  6  7  5
   0.329686725682E-01  7  6  7  6
   0.790171485307      7  7  1  1
  -0.514580759423E-16  7  7  2  1
   0.771583568182      7  7  2  2
   0.863824038871E-16  7  7  3  1
  -0.258950480216E-01  7  7  3  2
   0.815581053323      7  7  3  3
   0.154304601358E-16  7  7  4  1
   0.949320271167E-05  7  7  4  2
  -0.205212086960E-04  7  7  4  3
   0.759604410942      7  7  4  4
  -0.157332552334E-16  7  7  5  1
  -0.104789507438E-03  7  7  5  2
  -0.112318322048E-03  7  7  5  3
  -0.174145398383      7  7  5  4
   0.650936406392      7  7  5  5
   0.185868926439E-16  7  7  6  1
  -0.158052810112      7  7  6  2
  -0.731158830831E-01  7  7  6  3
   0.142263474392E-03  7  7  6  4
   0.683819523901E-14  7  7  6  5
   0.650936406499      7  7  6  6
  -0.100986197747E-15  7  7  7  1
   0.777375863465E-01  7  7  7  2
  -0.168043312874      7  7  7  3
   0.616051853791E-04  7  7  7  4
   0.563258190496E-14  7  7  7  5
   0.970891006480E-10  7  7  7  6
   0.716873751599      7  7  7  7
  -0.227394358824      8  1  1  1
  -0.635807014914E-17  8  1  2  1
  -0.220301129699      8  1  2  2
   0.868140966441E-17  8  1  3  1
   0.116633633197E-16  8  1  3  2
  -0.220301129699      8  1  3  3
   0.129139695995E-17  8  1  4  1
   0.950127102546E-15  8  1  4  2
   0.111749070660E-14  8  1  4  3
  -0.220301129697      8  1  4  4
   0.583313974162E-17  8  1  5  1
   0.908198509449E-04  8  1  5  2
   0.973449872612E-04  8  1  5  3
   0.150929797368      8  1  5  4
  -0.147546119261      8  1  5  5
  -0.173012200634E-16  8  1  6  1
   0.136982537716      8  1  6  2
   0.633686879825E-01  8  1  6  3
  -0.123298103531E-03  8  1  6  4
  -0.288880586661E-16  8  1  6  5
  -0.147546119262      8  1  6  6
   0.325619132935E-16  8  1  7  1
  -0.633687428533E-01  8  1  7  2
   0.136982558617      8  1  7  3
  -0.502182191674E-04  8  1  7  4
   0.263522537803E-17  8  1  7  5
   0.111084030541E-15  8  1  7  6
  -0.147546119262      8  1  7  7
   0.138257120925      8  1  8  1
  -0.518162794295E-16  8  2  1  1
  -0.394551814252E-01  8  2  2  1
  -0.682847429356E-16  8  2  2  2
   0.268048990717E-16  8  2  3  1
   0.725872696187E-18  8  2  3  2
  -0.609006141986E-16  8  2  3  3
   0.210582174468E-14  8  2  4  1
   0.319742108264E-19  8  2  4  2
   0.686527924058E-17  8  2  4  3
  -0.546355608986E-16  8  2  4  4
   0.318649548188E-04  8  2  5  1
   0.901987211198E-18  8  2  5  2
  -0.687758820794E-17  8  2  5  3
   0.343955074006E-16  8  2  5  4
  -0.393000667605E-16  8  2  5  5
   0.480615452453E-01  8  2  6  1
   0.359560649166E-16  8  2  6  2
   0.373503957728E-17  8  2  6  3
  -0.381779136492E-17  8  2  6  4
   0.359573531696E-17  8  2  6  5
  -0.319228182483E-16  8  2  6  6
  -0.222334886809E-01  8  2  7  1
  -0.185229136768E-17  8  2  7  2
   0.249015942006E-16  8  2  7  3
  -0.503082090600E-17  8  2  7  4
   0.514365956900E-17  8  2  7  5
   0.614584795447E-17  8  2  7  6
  -0.136338599471E-16  8  2  7  7
   0.403348647411E-16  8  2  8  1
   0.595288294235E-01  8  2  8  2
   0.529345407822E-16  8  3  1  1
   0.179894572861E-16  8  3  2  1
   0.508421695711E-16  8  3  2  2
  -0.394551814252E-01  8  3  3  1
  -0.111383664498E-16  8  3  3  2
   0.722021725717E-16  8  3  3  3
   0.244685243514E-14  8  3  4  1
   0.436099106977E-17  8  3  4  2
  -0.357623238142E-17  8  3  4  3
   0.535694118202E-16  8  3  4  4
   0.341543570997E-04  8  3  5  1
  -0.443970386186E-17  8  3  5  2
   0.442590628807E-17  8  3  5  3
  -0.338389069402E-16  8  3  5  4
   0.365185419035E-16  8  3  5  5
   0.222334694290E-01  8  3  6  1
  -0.352693899775E-16  8  3  6  2
  -0.161834245589E-16  8  3  6  3
  -0.337440662128E-17  8  3  6  4
   0.157586288888E-17  8  3  6  5
   0.530791059406E-16  8  3  6  6
   0.480615525789E-01  8  3  7  1
   0.100403022442E-16  8  3  7  2
  -0.290105039133E-16  8  3  7  3
   0.521993695624E-17  8  3  7  4
  -0.377296487747E-17  8  3  7  5
   0.153750781842E-17  8  3  7  6
   0.152933840444E-16  8  3  7  7
  -0.390523762586E-16  8  3  8  1
  -0.461756909367E-17  8  3  8  2
   0.595288294235E-01  8  3  8  3
   0.104905835129E-16  8  4  1  1
   0.210320941105E-14  8  4  2  1
   0.106594204489E-16  8  4  2  2
   0.243941476861E-14  8  4  3  1
   0.685866026631E-17  8  4  3  2
   0.629105381003E-17  8  4  3  3
  -0.394551814212E-01  8  4  4  1
  -0.564923667094E-17  8  4  4  2
   0.462233533562E-17  8  4  4  3
   0.211807918639E-16  8  4  4  4
   0.529550657032E-01  8  4  5  1
   0.529587798244E-17  8  4  5  2
  -0.584038201104E-17  8  4  5  3
  -0.124635278485E-16  8  4  5  4
   0.865442884932E-17  8  4  5  5
  -0.432602394460E-04  8  4  6  1
  -0.949948070669E-17  8  4  6  2
  -0.796260813120E-17  8  4  6  3
  -0.146047074011E-16  8  4  6  4
   0.126151881542E-16  8  4  6  5
   0.137508262448E-16  8  4  6  6
  -0.176195101427E-04  8  4  7  1
  -0.237456232695E-17  8  4  7  2
   0.122044166498E-17  8  4  7  3
  -0.269892067499E-17  8  4  7  4
   0.942517621412E-17  8  4  7  5
   0.210013706724E-17  8  4  7  6
  -0.105225475019E-17  8  4  7  7
  -0.751178124555E-17  8  4  8  1
  -0.792566422255E-15  8  4  8  2
  -0.914091430279E-15  8  4  8  3
   0.595288294220E-01  8  4  8  4
   0.526149652743E-17  8  5  1  1
   0.819642457478E-04  8  5  2  1
   0.210793013969E-18  8  5  2  2
   0.878531331551E-04  8  5  3  1
  -0.221482031647E-16  8  5  3  2
   0.141535949474E-16  8  5  3  3
   0.136213029128      8  5  4  1
   0.975453479417E-17  8  5  4  2
  -0.117404929738E-16  8  5  4  3
  -0.239991712248E-16  8  5  4  4
  -0.238765951607E-01  8  5  5  1
  -0.123061417579E-16  8  5  5  2
   0.144226032356E-17  8  5  5  3
   0.390690926533E-17  8  5  5  4
   0.610606271815E-17  8  5  5  5
  -0.377507935943E-16  8  5  6  1
   0.119485345438E-16  8  5  6  2
   0.505167875661E-17  8  5  6  3
   0.307075870574E-16  8  5  6  4
  -0.186777472733E-16  8  5  6  5
  -0.513451807261E-17  8  5  6  6
   0.582821333058E-17  8  5  7  1
   0.163064092939E-16  8  5  7  2
  -0.115077285152E-16  8  5  7  3
   0.363226391055E-16  8  5  7  4
   0.816258729959E-17  8  5  7  5
  -0.202734866203E-17  8  5  7  6
   0.907402140484E-17  8  5  7  7
   0.653754694541E-18  8  5  8  1
  -0.500962288992E-05  8  5  8  2
  -0.536954940264E-05  8  5  8  3
  -0.832528747589E-02  8  5  8  4
   0.117383382147      8  5  8  5
  -0.107743458574E-16  8  6  1  1
   0.123625730143      8  6  2  1
   0.164060776203E-16  8  6  2  2
   0.571897736070E-01  8  6  3  1
   0.297184650864E-17  8  6  3  2
  -0.974236284640E-17  8  6  3  3
  -0.111275629204E-03  8  6  4  1
  -0.161436392034E-17  8  6  4  2
  -0.167079129930E-16  8  6  4  3
  -0.155018742227E-16  8  6  4  4
  -0.432294026971E-16  8  6  5  1
   0.233881283016E-17  8  6  5  2
   0.512186488820E-17  8  6  5  3
   0.170396917334E-16  8  6  5  4
  -0.600796631606E-17  8  6  5  5
  -0.238765951616E-01  8  6  6  1
   0.661350765201E-18  8  6  6  2
   0.313766791720E-16  8  6  6  3
   0.118454105721E-16  8  6  6  4
  -0.149647171064E-17  8  6  6  5
  -0.314374353616E-16  8  6  6  6
   0.716584215479E-16  8  6  7  1
  -0.298535891676E-17  8  6  7  2
   0.282619602335E-16  8  6  7  3
   0.108356550448E-16  8  6  7  4
  -0.306360634790E-17  8  6  7  5
   0.930691477219E-17  8  6  7  6
  -0.129670835601E-16  8  6  7  7
   0.219759546292E-16  8  6  8  1
  -0.755595664988E-02  8  6  8  2
  -0.349541676874E-02  8  6  8  3
   0.680112327307E-05  8  6  8  4
   0.948756514685E-16  8  6  8  5
   0.117383382148      8  6  8  6
   0.120322233509E-16  8  7  1  1
  -0.571898231274E-01  8  7  2  1
  -0.398477218032E-17  8  7  2  2
   0.123625749007      8  7  3  1
   0.129636872213E-16  8  7  3  2
  -0.455238654112E-16  8  7  3  3
  -0.453215724763E-04  8  7  4  1
  -0.367940759705E-17  8  7  4  2
   0.180411988981E-16  8  7  4  3
  -0.616739935618E-17  8  7  4  4
   0.180621154760E-18  8  7  5  1
   0.338533137719E-17  8  7  5  2
  -0.622235678633E-17  8  7  5  3
   0.463777261140E-17  8  7  5  4
  -0.534040293479E-17  8  7  5  5
   0.716585045827E-16  8  7  6  1
   0.311695738494E-16  8  7  6  2
  -0.206898250383E-16  8  7  6  3
  -0.273834886472E-17  8  7  6  4
   0.367486689449E-18  8  7  6  5
  -0.148407450694E-16  8  7  6  6
  -0.238765951616E-01  8  7  7  1
   0.351186295181E-16  8  7  7  2
  -0.337276212659E-16  8  7  7  3
  -0.167796815882E-16  8  7  7  4
   0.793517836712E-17  8  7  7  5
  -0.734174025864E-17  8  7  7  6
   0.668703779935E-16  8  7  7  7
  -0.329307220161E-17  8  7  8  1
   0.349541979541E-02  8  7  8  2
  -0.755595780282E-02  8  7  8  3
   0.277003692144E-05  8  7  8  4
  -0.667723892531E-17  8  7  8  5
   0.146638477351E-17  8  7  8  6
   0.117383382148      8  7  8  7
   0.825055193885      8  8  1  1
   0.770670028528E-16  8  8  2  1
   0.810332485253      8  8  2  2
  -0.484060977863E-16  8  8  3  1
   0.146566483109E-16  8  8  3  2
   0.810332485253      8  8  3  3
  -0.873244796341E-17  8  8  4  1
  -0.377535761268E-15  8  8  4  2
  -0.446174976319E-15  8  8  4  3
   0.810332485252      8  8  4  4
  -0.564852340325E-17  8  8  5  1
  -0.104217611639E-03  8  8  5  2
  -0.111705337234E-03  8  8  5  3
  -0.173194988135      8  8  5  4
   0.686776313388      8  8  5  5
   0.233399453424E-16  8  8  6  1
  -0.157190226238      8  8  6  2
  -0.727168481948E-01  8  8  6  3
   0.141487061869E-03  8  8  6  4
  -0.154261640354E-16  8  8  6  5
   0.686776313389      8  8  6  6
  -0.354988749897E-16  8  8  7  1
   0.727169111601E-01  8  8  7  2
  -0.157190250224      8  8  7  3
   0.576264198623E-04  8  8  7  4
   0.375659112107E-18  8  8  7  5
  -0.123162816532E-15  8  8  7  6
   0.686776313389      8  8  7  7
  -0.144551757124      8  8  8  1
  -0.266174967408E-16  8  8  8  2
   0.393658745796E-16  8  8  8  3
   0.803855526133E-17  8  8  8  4
  -0.649002609709E-17  8  8  8  5
   0.342844570535E-16  8  8  8  6
  -0.672657237349E-16  8  8  8  7
   0.711505100285      8  8  8  8
   0.225492478752E-11  9  1  1  1
   0.404129761365E-17  9  1  2  1
  -0.409102508552E-01  9  1  2  2
   0.197623656082E-16  9  1  3  1
   0.247856231692E-05  9  1  3  2
  -0.409104788939E-01  9  1  3  3
   0.121783224020E-16  9  1  4  1
   0.657901019804E-04  9  1  4  2
   0.769070013427E-04  9  1  4  3
   0.818207297716E-01  9  1  4  4
  -0.578895442394E-17  9  1  5  1
  -0.124486435397E-04  9  1  5  2
  -0.152748951588E-04  9  1  5  3
  -0.247375728072E-01  9  1  5  4
   0.453872975132E-01  9  1  5  5
   0.165056750939E-16  9  1  6  1
   0.112254582935E-01  9  1  6  2
   0.519244924719E-02  9  1  6  3
  -0.760654562737E-05  9  1  6  4
  -0.458170253751E-05  9  1  6  5
  -0.226925748680E-01  9  1  6  6
   0.166999605248E-16  9  1  7  1
  -0.519375941689E-02  9  1  7  2
   0.112261433171E-01  9  1  7  3
  -0.452114036615E-05  9  1  7  4
   0.744725971313E-06  9  1  7  5
   0.824376303866E-06  9  1  7  6
  -0.226947225096E-01  9  1  7  7
  -0.371366589987E-12  9  1  8  1
  -0.123283697814E-17  9  1  8  2
  -0.248796279818E-16  9  1  8  3
  -0.991982388102E-18  9  1  8  4
   0.118122513071E-16  9  1  8  5
  -0.270158156764E-17  9  1  8  6
   0.189704386134E-17  9  1  8  7
   0.124704362982E-11  9  1  8  8
   0.105146304264      9  1  9  1
  -0.124698574695E-17  9  2  1  1
  -0.884682916210E-01  9  2  2  1
  -0.194431459899E-16  9  2  2  2
   0.535988338425E-05  9  2  3  1
   0.136868429600E-17  9  2  3  2
  -0.228117243176E-16  9  2  3  3
   0.142270893116E-03  9  2  4  1
   0.405771291731E-18  9  2  4  2
   0.852089027394E-17  9  2  4  3
  -0.246967839331E-17  9  2  4  4
  -0.258323851774E-04  9  2  5  1
  -0.715938577584E-18  9  2  5  2
  -0.293284970883E-17  9  2  5  3
   0.127552210924E-18  9  2  5  4
  -0.184875982075E-17  9  2  5  5
   0.232941333558E-01  9  2  6  1
   0.215620342890E-16  9  2  6  2
  -0.288240817716E-16  9  2  6  3
  -0.442869352991E-17  9  2  6  4
   0.235444073472E-17  9  2  6  5
   0.786196181131E-17  9  2  6  6
  -0.107776556922E-01  9  2  7  1
   0.128989556629E-16  9  2  7  2
  -0.163450077243E-16  9  2  7  3
  -0.625544178043E-17  9  2  7  4
   0.173077129588E-17  9  2  7  5
  -0.743989684707E-17  9  2  7  6
   0.271856780991E-16  9  2  7  7
  -0.126902466733E-17  9  2  8  1
   0.176549910725E-01  9  2  8  2
  -0.106963400787E-05  9  2  8  3
  -0.283919956215E-04  9  2  8  4
   0.575253006628E-04  9  2  8  5
  -0.518729500053E-01  9  2  8  6
   0.240004118787E-01  9  2  8  7
  -0.286645518956E-16  9  2  8  8
   0.179601396050E-17  9  2  9  1
   0.660815205013E-01  9  2  9  2
   0.110788788514E-15  9  3  1  1
   0.535988338425E-05  9  3  2  1
   0.106901816749E-15  9  3  2  2
  -0.884687847539E-01  9  3  3  1
  -0.169332278446E-16  9  3  3  2
   0.159427687087E-15  9  3  3  3
   0.166311153784E-03  9  3  4  1
  -0.531039047090E-17  9  3  4  2
  -0.796582016526E-18  9  3  4  3
   0.108708860330E-15  9  3  4  4
  -0.316971864480E-04  9  3  5  1
   0.138878542584E-17  9  3  5  2
  -0.277972667814E-18  9  3  5  3
  -0.685453263735E-16  9  3  5  4
   0.754743101944E-16  9  3  5  5
   0.107749369375E-01  9  3  6  1
  -0.833219279497E-16  9  3  6  2
  -0.214267254928E-16  9  3  6  3
   0.137176440365E-17  9  3  6  4
  -0.185599497368E-17  9  3  6  5
   0.922194089452E-16  9  3  6  6
   0.232955548594E-01  9  3  7  1
   0.110041986815E-16  9  3  7  2
  -0.624644673189E-16  9  3  7  3
   0.178025413111E-17  9  3  7  4
   0.195016517211E-17  9  3  7  5
  -0.107117884664E-18  9  3  7  6
   0.409091066424E-16  9  3  7  7
  -0.707297284929E-16  9  3  8  1
  -0.106963400788E-05  9  3  8  2
   0.176550894835E-01  9  3  8  3
  -0.331895403665E-04  9  3  8  4
   0.705854363837E-04  9  3  8  5
  -0.239943575720E-01  9  3  8  6
  -0.518761155056E-01  9  3  8  7
   0.969912323456E-16  9  3  8  8
  -0.179028509955E-16  9  3  9  1
  -0.519493783408E-05  9  3  9  2
   0.660820523648E-01  9  3  9  3
   0.337529231946E-17  9  4  1  1
   0.142270893116E-03  9  4  2  1
  -0.260056288237E-17  9  4  2  2
   0.166311153784E-03  9  4  3  1
  -0.254187796258E-16  9  4  3  2
   0.132938645509E-16  9  4  3  3
   0.176937076378      9  4  4  1
   0.663837698234E-17  9  4  4  2
  -0.500743445475E-18  9  4  4  3
  -0.399218491269E-16  9  4  4  4
  -0.513333446417E-01  9  4  5  1
  -0.131315762914E-16  9  4  5  2
  -0.778578029809E-17  9  4  5  3
   0.438624207569E-17  9  4  5  4
   0.828298331448E-17  9  4  5  5
  -0.157844680923E-04  9  4  6  1
   0.124763245401E-16  9  4  6  2
   0.600143903393E-17  9  4  6  3
   0.495540345627E-16  9  4  6  4
  -0.295616155685E-16  9  4  6  5
  -0.746356793744E-17  9  4  6  6
  -0.938189282326E-05  9  4  7  1
   0.193443175024E-16  9  4  7  2
  -0.151515009165E-16  9  4  7  3
   0.488474397698E-16  9  4  7  4
   0.693547118522E-17  9  4  7  5
  -0.264319447197E-17  9  4  7  6
   0.109530500907E-16  9  4  7  7
  -0.190063765506E-18  9  4  8  1
  -0.283919956216E-04  9  4  8  2
  -0.331895403665E-04  9  4  8  3
  -0.353100805675E-01  9  4  8  4
   0.114312560154      9  4  8  5
   0.351499200117E-04  9  4  8  6
   0.208922328187E-04  9  4  8  7
  -0.717770034757E-17  9  4  8  8
   0.173698714823E-16  9  4  9  1
   0.707157203746E-04  9  4  9  2
   0.826628965166E-04  9  4  9  3
   0.197992021228      9  4  9  4
  -0.232645104299E-16  9  5  1  1
  -0.303457163099E-04  9  5  2  1
  -0.194077094527E-16  9  5  2  2
  -0.372351922273E-04  9  5  3  1
   0.850697428420E-17  9  5  3  2
  -0.247836755414E-16  9  5  3  3
  -0.603021015300E-01  9  5  4  1
  -0.427955776523E-17  9  5  4  2
  -0.126015095709E-16  9  5  4  3
  -0.105153760951E-16  9  5  4  4
   0.361456999715E-01  9  5  5  1
   0.444554202332E-17  9  5  5  2
   0.112707711667E-17  9  5  5  3
   0.141922166775E-16  9  5  5  4
  -0.173544953757E-16  9  5  5  5
  -0.364879282348E-05  9  5  6  1
   0.674577561627E-17  9  5  6  2
   0.181290144510E-17  9  5  6  3
  -0.197604647218E-16  9  5  6  4
   0.835409426272E-17  9  5  6  5
  -0.975966831267E-17  9  5  6  6
   0.593087559813E-06  9  5  7  1
  -0.115627160886E-16  9  5  7  2
   0.171784429425E-16  9  5  7  3
  -0.117465567031E-16  9  5  7  4
  -0.887665095082E-17  9  5  7  5
   0.136934500504E-17  9  5  7  6
  -0.193788767643E-16  9  5  7  7
   0.118985492470E-16  9  5  8  1
   0.178446199986E-04  9  5  8  2
   0.218959357913E-04  9  5  8  3
   0.354602961390E-01  9  5  8  4
  -0.340197532415E-01  9  5  8  5
   0.343418529812E-05  9  5  8  6
  -0.558204501461E-06  9  5  8  7
  -0.119297917759E-16  9  5  8  8
  -0.907589422836E-17  9  5  9  1
  -0.372583745047E-04  9  5  9  2
  -0.422502142670E-04  9  5  9  3
  -0.667712203528E-01  9  5  9  4
   0.388437002628E-01  9  5  9  5
   0.117891318836E-15  9  6  1  1
   0.273639912693E-01  9  6  2  1
   0.113874722304E-15  9  6  2  2
   0.126574908704E-01  9  6  3  1
  -0.254592403282E-16  9  6  3  2
   0.957548403555E-16  9  6  3  3
  -0.185422672940E-04  9  6  4  1
   0.270687580016E-17  9  6  4  2
  -0.227847657523E-17  9  6  4  3
   0.132172311195E-15  9  6  4  4
  -0.364879282347E-05  9  6  5  1
   0.287259102140E-18  9  6  5  2
   0.148081026039E-17  9  6  5  3
  -0.374721711602E-16  9  6  5  4
   0.895943517892E-16  9  6  5  5
  -0.180719948117E-01  9  6  6  1
  -0.234792374606E-16  9  6  6  2
   0.345278993571E-18  9  6  6  3