 &FCI NORB= 10,NELEC= 13,MS2= 1,
  ORBSYM=1,1,1,1,1,1,1,1,1,1,
  ISYM=1,
  IUHF=1,
 &END
  0.4128697937496171E+01   1   1   1   1
 -0.5770818473802013E-02   2   1   1   1
  0.1271979112608752E-04   2   1   2   1
  0.5296911472568187E+00   2   2   1   1
  0.2548462137803765E-02   2   2   2   1
  0.3505121167055719E+01   2   2   2   2
 -0.3149163566678561E+00   3   1   1   1
  0.6149767635758652E-03   3   1   2   1
  0.6849912453045766E-02   3   1   2   2
  0.4071547390801332E-01   3   1   3   1
  0.1108758057869729E-01   3   2   1   1
 -0.2146185199475522E-03   3   2   2   1
 -0.2662884832240626E+00   3   2   2   2
  0.1664739024629642E-03   3   2   3   1
  0.3416237966202237E-01   3   2   3   2
  0.8601799463847918E+00   3   3   1   1
 -0.1367702822272334E-04   3   3   2   1
  0.7539895753162573E+00   3   3   2   2
 -0.8709854525166399E-04   3   3   3   1
  0.3300754219292087E-02   3   3   3   2
  0.7474239625430275E+00   3   3   3   3
 -0.1659063619397292E+00   4   1   1   1
  0.2931367686306876E-03   4   1   2   1
 -0.1099839186298978E-02   4   1   2   2
  0.1961875226905201E-01   4   1   3   1
 -0.8736272529668540E-04   4   1   3   2
 -0.5995560348043426E-02   4   1   3   3
  0.1063815873096330E-01   4   1   4   1
  0.1620357606909639E-01   4   2   1   1
  0.1516878145339798E-03   4   2   2   1
  0.2512409021449901E+00   4   2   2   2
  0.3566395647451315E-03   4   2   3   1
 -0.2505201417755802E-01   4   2   3   2
  0.2498246931320752E-01   4   2   3   3
 -0.5770243405169581E-04   4   2   4   1
  0.3650819752259053E-01   4   2   4   2
  0.1580717238831868E+00   4   3   1   1
 -0.2454593778583246E-03   4   3   2   1
 -0.7806037279505663E-01   4   3   2   2
 -0.3685701373140819E-02   4   3   3   1
  0.8418494946846935E-02   4   3   3   2
  0.5234378196629925E-01   4   3   3   3
 -0.2248757002208428E-02   4   3   4   1
  0.1505107714890583E-02   4   3   4   2
  0.3527617076396164E-01   4   3   4   3
  0.4434097637176954E+00   4   4   1   1
  0.3812114745329854E-03   4   4   2   1
  0.7934678899108221E+00   4   4   2   2
 -0.3713713166690891E-03   4   4   3   1
 -0.1906851762775171E-01   4   4   3   2
  0.4730198180908092E+00   4   4   3   3
 -0.1619116805298172E-02   4   4   4   1
 -0.5162971357972307E-02   4   4   4   2
 -0.4643294063763764E-01   4   4   4   3
  0.6514439685968709E+00   4   4   4   4
  0.1947394967388266E-14   5   1   1   1
 -0.1496084094875639E-17   5   1   2   1
  0.3419272583670646E-17   5   1   2   2
 -0.1815098713370154E-15   5   1   3   1
  0.9308973849162882E-17   5   1   3   2
  0.1558352756476029E-15   5   1   3   3
 -0.1269008830869926E-15   5   1   4   1
  0.8534108030208127E-17   5   1   4   2
  0.5772805606287673E-16   5   1   4   3
 -0.2898364727865290E-16   5   1   4   4
  0.7505891821734291E-02   5   1   5   1
  0.2012208838681437E-15   5   2   1   1
 -0.3610480004411218E-17   5   2   2   1
 -0.4279307088629836E-15   5   2   2   2
 -0.7103978109172539E-18   5   2   3   1
  0.1018874651296980E-15   5   2   3   2
  0.2059157694578527E-15   5   2   3   3
  0.2990488403788269E-17   5   2   4   1
 -0.7359194235683455E-17   5   2   4   2
  0.5378847350320486E-16   5   2   4   3
 -0.2603563726681901E-16   5   2   4   4
  0.4946471352431695E-03   5   2   5   1
  0.1130762536256413E-01   5   2   5   2
 -0.7645841017602831E-16   5   3   1   1
  0.1059894961499663E-17   5   3   2   1
  0.1462468242415811E-14   5   3   2   2
  0.7121277073306218E-16   5   3   3   1
  0.3103991651090790E-16   5   3   3   2
  0.9957136250728968E-15   5   3   3   3
  0.2939239948712557E-16   5   3   4   1
  0.9131629408515724E-16   5   3   4   2
  0.5185007789865783E-16   5   3   4   3
  0.4572698637278254E-15   5   3   4   4
  0.1146155508294063E-01   5   3   5   1
  0.1438281637023791E-01   5   3   5   2
  0.1079614657217431E+00   5   3   5   3
 -0.1161911695699766E-14   5   4   1   1
  0.6431475003867708E-17   5   4   2   1
  0.9202989977942739E-15   5   4   2   2
  0.8038725099248886E-16   5   4   3   1
 -0.3714448238040824E-16   5   4   3   2
  0.2068496632035354E-17   5   4   3   3
  0.2786272010217666E-17   5   4   4   1
 -0.2646907499943024E-16   5   4   4   2
 -0.2465530578170145E-15   5   4   4   3
  0.7154147594694173E-15   5   4   4   4
  0.3473839827058891E-02   5   4   5   1
 -0.9476773054652369E-02   5   4   5   2
 -0.1206418103697171E-01   5   4   5   3
  0.4235435952615074E-01   5   4   5   4
  0.6549831919441146E+00   5   5   1   1
  0.5092307026598273E-04   5   5   2   1
  0.6851516697977070E+00   5   5   2   2
  0.2282873519252812E-03   5   5   3   1
 -0.1219369589531713E-02   5   5   3   2
  0.6083250145751259E+00   5   5   3   3
 -0.2038445940457476E-02   5   5   4   1
  0.1002819270492272E-01   5   5   4   2
  0.1498555022990235E-01   5   5   4   3
  0.4897785678131594E+00   5   5   4   4
 -0.1048738244146217E-15   5   5   5   1
  0.1544224499463383E-15   5   5   5   2
  0.3400711834599231E-15   5   5   5   3
 -0.8556961654553786E-16   5   5   5   4
  0.5759061493441311E+00   5   5   5   5
  0.6727431343530058E-15   6   1   1   1
 -0.4336125918752256E-17   6   1   2   1
  0.4932345293476256E-16   6   1   2   2
 -0.7764376279784329E-16   6   1   3   1
 -0.5649821620041404E-17   6   1   3   2
  0.4209457325486968E-16   6   1   3   3
 -0.2013986245475071E-16   6   1   4   1
  0.1736219187655627E-18   6   1   4   2
  0.4053042504863523E-16   6   1   4   3
  0.5509646684687295E-16   6   1   4   4
 -0.1612867351992235E-16   6   1   5   1
 -0.1278443288889002E-18   6   1   5   2
 -0.1645620016274519E-16   6   1   5   3
 -0.8163979591483704E-17   6   1   5   4
  0.1024079477439897E-16   6   1   5   5
  0.7505891821734311E-02   6   1   6   1
 -0.2813094408160136E-15   6   2   1   1
  0.1948265677000680E-17   6   2   2   1
 -0.6632847609786967E-15   6   2   2   2
  0.9247287788516620E-18   6   2   3   1
  0.4265257309512802E-16   6   2   3   2
 -0.2461775484627819E-15   6   2   3   3
  0.3141520006239995E-18   6   2   4   1
 -0.4339156827006610E-16   6   2   4   2
  0.2080481001364826E-16   6   2   4   3
 -0.1794514253447703E-15   6   2   4   4
 -0.1213819499319589E-18   6   2   5   1
  0.1823793612555094E-16   6   2   5   2
  0.1454179552923973E-16   6   2   5   3
 -0.1690782464596475E-16   6   2   5   4
 -0.1954800230928679E-15   6   2   5   5
  0.4946471352431681E-03   6   2   6   1
  0.1130762536256403E-01   6   2   6   2
 -0.3861473389403494E-15   6   3   1   1
 -0.1631324197257483E-17   6   3   2   1
  0.3184331821230554E-15   6   3   2   2
  0.1924803995758591E-16   6   3   3   1
 -0.5527549229748608E-16   6   3   3   2
  0.1079582696464281E-15   6   3   3   3
  0.3768376741773127E-16   6   3   4   1
  0.3792202409994360E-16   6   3   4   2
  0.2474211039202173E-15   6   3   4   3
  0.1887629944960654E-15   6   3   4   4
 -0.1597975931846707E-16   6   3   5   1
  0.1533540251271639E-16   6   3   5   2
 -0.2092005190510027E-16   6   3   5   3
 -0.6832494470145683E-16   6   3   5   4
  0.3388975896994866E-16   6   3   5   5
  0.1146155508294064E-01   6   3   6   1
  0.1438281637023781E-01   6   3   6   2
  0.1079614657217428E+00   6   3   6   3
  0.7873471320780101E-15   6   4   1   1
 -0.4247011018856669E-17   6   4   2   1
  0.4181811424423783E-16   6   4   2   2
  0.3345292870254607E-17   6   4   3   1
  0.4214666378367436E-16   6   4   3   2
  0.6078791520866058E-15   6   4   3   3
  0.1810554419400853E-16   6   4   4   1
  0.3940083730556063E-17   6   4   4   2
  0.1587744804276574E-15   6   4   4   3
  0.4157108472342484E-16   6   4   4   4
 -0.8547699766610540E-17   6   4   5   1
 -0.1672902927395970E-16   6   4   5   2
 -0.6789467788621189E-16   6   4   5   3
  0.5126086228012365E-16   6   4   5   4
  0.3181668697246867E-15   6   4   5   5
  0.3473839827058903E-02   6   4   6   1
 -0.9476773054652278E-02   6   4   6   2
 -0.1206418103697146E-01   6   4   6   3
  0.4235435952615043E-01   6   4   6   4
 -0.3049079912261420E-15   6   5   1   1
  0.7372030391280752E-18   6   5   2   1
  0.3670681044729082E-15   6   5   2   2
  0.8392476801456820E-17   6   5   3   1
 -0.1522511657488336E-16   6   5   3   2
  0.1184385782850566E-16   6   5   3   3
  0.3613775789473585E-17   6   5   4   1
  0.3316284033016041E-18   6   5   4   2
 -0.8235001806539732E-16   6   5   4   3
  0.2132291542718678E-15   6   5   4   4
 -0.1782908943970968E-16   6   5   5   1
  0.9497229246648534E-17   6   5   5   2
 -0.1207401262825754E-16   6   5   5   3
 -0.3332959004156095E-16   6   5   5   4
  0.1279784308041987E-10   6   5   5   5
 -0.5163968688525329E-16   6   5   6   1
  0.1861096174926038E-16   6   5   6   2
 -0.8097806843858199E-16   6   5   6   3
 -0.5454678514267884E-16   6   5   6   4
  0.2476170036403910E-01   6   5   6   5
  0.6549831919441133E+00   6   6   1   1
  0.5092307026597969E-04   6   6   2   1
  0.6851516697977035E+00   6   6   2   2
  0.2282873519252222E-03   6   6   3   1
 -0.1219369589531685E-02   6   6   3   2
  0.6083250145751238E+00   6   6   3   3
 -0.2038445940457490E-02   6   6   4   1
  0.1002819270492269E-01   6   6   4   2
  0.1498555022990253E-01   6   6   4   3
  0.4897785678131568E+00   6   6   4   4
 -0.1594450644537797E-17   6   6   5   1
  0.1172005264675494E-15   6   6   5   2
  0.5020273203009566E-15   6   6   5   3
  0.2352395357667389E-16   6   6   5   4
  0.5263827486167199E+00   6   6   5   5
 -0.2541738409573421E-16   6   6   6   1
 -0.1764855646084167E-15   6   6   6   2
  0.9741733673371255E-17   6   6   6   3
  0.2515076895705029E-15   6   6   6   4
 -0.1279775591056520E-10   6   6   6   5
  0.5759061493441264E+00   6   6   6   6
 -0.1824525282695549E+00   7   1   1   1
  0.2248372592995415E-03   7   1   2   1
 -0.1552997302987947E-01   7   1   2   2
  0.1542094113651101E-01   7   1   3   1
 -0.6222829339095652E-03   7   1   3   2
 -0.2490254501499845E-01   7   1   3   3
  0.1238637511726249E-01   7   1   4   1
 -0.9686407601322193E-03   7   1   4   2
 -0.3493693282823057E-02   7   1   4   3
 -0.5834018943099206E-02   7   1   4   4
 -0.1983017698426909E-15   7   1   5   1
 -0.1015766904299951E-17   7   1   5   2
  0.5005827502248518E-17   7   1   5   3
 -0.4555858088610945E-16   7   1   5   4
 -0.8843210988974981E-02   7   1   5   5
 -0.6149567668722261E-16   7   1   6   1
  0.5322026648066718E-17   7   1   6   2
  0.3907786151854819E-17   7   1   6   3
 -0.1879596850165770E-16   7   1   6   4
 -0.4336808689941666E-17   7   1   6   5
 -0.8843210988974936E-02   7   1   6   6
  0.2660653676318200E-01   7   1   7   1
 -0.1242801318558338E-01   7   2   1   1
  0.5486332946248361E-04   7   2   2   1
  0.4168117099000373E-01   7   2   2   2
 -0.2959491295460566E-03   7   2   3   1
 -0.8688693570174093E-02   7   2   3   2
 -0.1235789210170643E-01   7   2   3   3
  0.1988951256693571E-04   7   2   4   1
 -0.1559539573620143E-02   7   2   4   2
 -0.5287909615880982E-02   7   2   4   3
  0.1258276255495917E-01   7   2   4   4
 -0.4838226569569298E-18   7   2   5   1
  0.5448479939988109E-16   7   2   5   2
  0.9356006263756857E-16   7   2   5   3
 -0.5565254554804960E-16   7   2   5   4
 -0.3631919547851600E-02   7   2   5   5
 -0.6734382536821246E-18   7   2   6   1
  0.2179492918990543E-16   7   2   6   2
  0.2393350608346541E-16   7   2   6   3
 -0.5479171963584611E-16   7   2   6   4
  0.7697835424647291E-17   7   2   6   5
 -0.3631919547851610E-02   7   2   6   6
  0.6237811442104084E-03   7   2   7   1
  0.5689725389268678E-02   7   2   7   2
 -0.7791346225507371E-02   7   3   1   1
 -0.2621417094402033E-03   7   3   2   1
 -0.1379454643781418E+00   7   3   2   2
 -0.8439839813332345E-02   7   3   3   1
 -0.1642601448549857E-02   7   3   3   2
 -0.9263425280378984E-01   7   3   3   3
 -0.5255735088447721E-03   7   3   4   1
 -0.9081540031238011E-02   7   3   4   2
  0.1488924484610410E-02   7   3   4   3
 -0.3485618399966557E-01   7   3   4   4
  0.1234293519522003E-16   7   3   5   1
  0.8455389591742852E-16   7   3   5   2
  0.4492498801393093E-15   7   3   5   3
 -0.4014782445587489E-15   7   3   5   4
 -0.4838374015543709E-01   7   3   5   5
 -0.1599460033259189E-17   7   3   6   1
  0.4474950071139466E-16   7   3   6   2
  0.4759300786169759E-16   7   3   6   3
 -0.8029150593386497E-16   7   3   6   4
 -0.5290906601729136E-16   7   3   6   5
 -0.4838374015543675E-01   7   3   6   6
  0.1152190331941840E-01   7   3   7   1
  0.4764722591990837E-02   7   3   7   2
  0.5334958805953466E-01   7   3   7   3
  0.1437020606533731E+00   7   4   1   1
 -0.3876596881380593E-03   7   4   2   1
 -0.1266472281992966E+00   7   4   2   2
 -0.7839937507318553E-02   7   4   3   1
  0.5561380034750762E-02   7   4   3   2
  0.6949939024866569E-02   7   4   3   3
 -0.9768469295017316E-03   7   4   4   1
  0.4602425705085645E-02   7   4   4   2
  0.3645807010580032E-01   7   4   4   3
 -0.9879606322128653E-01   7   4   4   4
 -0.2520002815168999E-16   7   4   5   1
 -0.4990918467633264E-16   7   4   5   2
 -0.4435047123731693E-15   7   4   5   3
 -0.2168159726008524E-15   7   4   5   4
 -0.5782393324143383E-02   7   4   5   5
  0.1193679244538955E-18   7   4   6   1
 -0.3313652158497568E-16   7   4   6   2
 -0.1101282060387826E-15   7   4   6   3
  0.2774278296434363E-15   7   4   6   4
 -0.1196959198423992E-15   7   4   6   5
 -0.5782393324142991E-02   7   4   6   6
  0.8336233091819426E-02   7   4   7   1
 -0.5131736449461001E-02   7   4   7   2
  0.3170620283112405E-01   7   4   7   3
  0.7838802519050642E-01   7   4   7   4
 -0.2686647477966656E-14   7   5   1   1
  0.7603832198934171E-17   7   5   2   1
  0.1843250495318091E-14   7   5   2   2
  0.1698103541859818E-15   7   5   3   1
 -0.4629687851509889E-16   7   5   3   2
  0.2415545696312532E-15   7   5   3   3
  0.2249820999250413E-16   7   5   4   1
 -0.5129841976025226E-17   7   5   4   2
 -0.5428367299711332E-15   7   5   4   3
  0.8322754636378309E-15   7   5   4   4
  0.4223344027791597E-02   7   5   5   1
 -0.9378725912057743E-03   7   5   5   2
  0.7184370368120968E-02   7   5   5   3
  0.3854848596707394E-02   7   5   5   4
  0.6453689112695128E-16   7   5   5   5
 -0.1036449182908830E-16   7   5   6   1
 -0.1119541765193857E-17   7   5   6   2
 -0.3345028045771647E-16   7   5   6   3
 -0.2884007390396061E-16   7   5   6   4
 -0.1402145909253283E-16   7   5   6   5
  0.1016590426901980E-15   7   5   6   6
 -0.1592664426566401E-15   7   5   7   1
  0.2997267830679614E-16   7   5   7   2
 -0.5945647001642259E-15   7   5   7   3
 -0.1110356426273368E-14   7   5   7   4
  0.2497242171213563E-01   7   5   7   5
 -0.6732669556361740E-15   7   6   1   1
 -0.9616103032467311E-19   7   6   2   1
  0.6280846597538322E-15   7   6   2   2
  0.4000299988334153E-16   7   6   3   1
 -0.2539764207384966E-16   7   6   3   2
  0.4553323479795980E-16   7   6   3   3
  0.1688393196569662E-16   7   6   4   1
 -0.1348966268115039E-16   7   6   4   2
 -0.1285331710904651E-15   7   6   4   3
  0.4226500367390319E-15   7   6   4   4
 -0.1020938467332796E-16   7   6   5   1
 -0.8713676492154266E-18   7   6   5   2
 -0.3547986071718426E-16   7   6   5   3
 -0.2672043546639924E-16   7   6   5   4
  0.5051262668166366E-16   7   6   5   5
  0.4223344027791613E-02   7   6   6   1
 -0.9378725912057687E-03   7   6   6   2
  0.7184370368121045E-02   7   6   6   3
  0.3854848596707465E-02   7   6   6   4
 -0.1856107579385294E-16   7   6   6   5
  0.2246970806571963E-16   7   6   6   6
 -0.4822886894842718E-16   7   6   7   1
  0.4870712682065744E-17   7   6   7   2
 -0.1524194366823381E-15   7   6   7   3
 -0.2562472992685490E-15   7   6   7   4
 -0.3696640045659354E-16   7   6   7   5
  0.2497242171213566E-01   7   6   7   6
  0.9060101181068086E+00   7   7   1   1
 -0.6097025116830663E-03   7   7   2   1
  0.4814800040637155E+00   7   7   2   2
 -0.1679607868616134E-01   7   7   3   1
  0.3133966355540078E-02   7   7   3   2
  0.5611886626627071E+00   7   7   3   3
 -0.3645402288268009E-02   7   7   4   1
  0.9897187527564216E-02   7   7   4   2
  0.6987620404640907E-01   7   7   4   3
  0.3966424409717158E+00   7   7   4   4
 -0.8019933363124756E-16   7   7   5   1
  0.1189005941654491E-15   7   7   5   2
 -0.7000096490993080E-16   7   7   5   3
 -0.8933558596555355E-15   7   7   5   4
  0.4977898339085948E+00   7   7   5   5
 -0.1801812743978875E-16   7   7   6   1
 -0.2005731981364337E-15   7   7   6   2
 -0.1479099390192593E-15   7   7   6   3
  0.4214186044511058E-15   7   7   6   4
 -0.1595945597898615E-15   7   7   6   5
  0.4977898339085934E+00   7   7   6   6
  0.1137250657406216E-01   7   7   7   1
 -0.6577180185569116E-02   7   7   7   2
  0.2109954056097044E-01   7   7   7   3
  0.1110133638531325E+00   7   7   7   4
 -0.2119854615264416E-14   7   7   7   5
 -0.5259488989470872E-15   7   7   7   6
  0.7443450898115486E+00   7   7   7   7
  0.7609816919642168E-16   8   1   1   1
  0.1962664295228169E-18   8   1   2   1
 -0.3053566671424585E-16   8   1   2   2
 -0.1326692231434832E-16   8   1   3   1
  0.1167904717061818E-17   8   1   3   2
 -0.2202347577037522E-16   8   1   3   3
 -0.3081518318768604E-16   8   1   4   1
 -0.1044799871759605E-17   8   1   4   2
 -0.3504451962238913E-16   8   1   4   3
 -0.4203752032657363E-16   8   1   4   4
 -0.1022546613049571E-01   8   1   5   1
 -0.5465312673757505E-03   8   1   5   2
 -0.1408680890809212E-01   8   1   5   3
 -0.4560984282020794E-02   8   1   5   4
  0.1274388764669572E-15   8   1   5   5
 -0.4987846691486826E-02   8   1   6   1
 -0.2665907000214259E-03   8   1   6   2
 -0.6871358460255170E-02   8   1   6   3
 -0.2224787610723620E-02   8   1   6   4
  0.5815771730712358E-16   8   1   6   5
  0.2761441812123436E-16   8   1   6   6
 -0.8698739801545818E-16   8   1   7   1
 -0.5696217969709179E-17   8   1   7   2
 -0.1221733005112263E-15   8   1   7   3
 -0.4223225033399252E-16   8   1   7   4
 -0.5992192825235673E-02   8   1   7   5
 -0.2922912146661616E-02   8   1   7   6
 -0.7874845454098099E-16   8   1   7   7
  0.1731616276911873E-01   8   1   8   1
  0.1270823175525589E-16   8   2   1   1
 -0.1935017601847513E-17   8   2   2   1
 -0.2892073148826874E-16   8   2   2   2
 -0.1691266816348557E-17   8   2   3   1
  0.1710214053679958E-16   8   2   3   2
  0.3500895399506758E-16   8   2   3   3
  0.2442541395234155E-17   8   2   4   1
  0.2939890939241533E-16   8   2   4   2
  0.2601552895176927E-16   8   2   4   3
 -0.5357028629785690E-16   8   2   4   4
  0.3082192458850969E-03   8   2   5   1
  0.1068035308780915E-01   8   2   5   2
  0.1146107567668277E-01   8   2   5   3
 -0.9116008747019601E-02   8   2   5   4
  0.2925697546197792E-16   8   2   5   5
  0.1503452582230616E-03   8   2   6   1
  0.5209734513135334E-02   8   2   6   2
  0.5590560632178339E-02   8   2   6   3
 -0.4446668101787783E-02   8   2   6   4
  0.2516561622982216E-16   8   2   6   5
  0.2554103077596178E-16   8   2   6   6
  0.2426663420245954E-17   8   2   7   1
  0.9384733134572552E-16   8   2   7   2
  0.9918469068831352E-16   8   2   7   3
 -0.8175787336528085E-16   8   2   7   4
 -0.4963763610297952E-03   8   2   7   5
 -0.2421258022371159E-03   8   2   7   6
 -0.5099984876147262E-18   8   2   7   7
 -0.4175264786123898E-03   8   2   8   1
  0.1259947623416410E-01   8   2   8   2
 -0.2548918134848169E-15   8   3   1   1
 -0.3931698243103268E-19   8   3   2   1
  0.2735848712446377E-15   8   3   2   2
  0.2933476659932853E-17   8   3   3   1
 -0.3431021058127281E-17   8   3   3   2
 -0.4711446506818236E-16   8   3   3   3
 -0.1669925654493560E-16   8   3   4   1
  0.1585590288857215E-16   8   3   4   2
 -0.1528057693419159E-15   8   3   4   3
 -0.2167252896265417E-16   8   3   4   4
 -0.8285749559379151E-02   8   3   5   1
  0.4834389499894991E-02   8   3   5   2
 -0.1943697783591831E-01   8   3   5   3
 -0.2663906282749178E-01   8   3   5   4
  0.3843049623590201E-15   8   3   5   5
 -0.4041678687192933E-02   8   3   6   1
  0.2358151048048206E-02   8   3   6   2
 -0.9481099869105695E-02   8   3   6   3
 -0.1299418135982552E-01   8   3   6   4
  0.1763029041006437E-15   8   3   6   5
  0.1177996484118974E-15   8   3   6   6
 -0.7075657497081641E-16   8   3   7   1
  0.4825802719911347E-16   8   3   7   2
 -0.2238503680738532E-15   8   3   7   3
 -0.3665783836484809E-15   8   3   7   4
 -0.1483523109909460E-01   8   3   7   5
 -0.7236428873827224E-02   8   3   7   6
 -0.3691212052159266E-15   8   3   7   7
  0.1324290093604895E-01   8   3   8   1
  0.5975506647562911E-02   8   3   8   2
  0.4362284593845507E-01   8   3   8   3
 -0.7130291002086870E-15   8   4   1   1
  0.3570542426042071E-17   8   4   2   1
  0.5464919972069611E-15   8   4   2   2
  0.2148224590915998E-16   8   4   3   1
 -0.3572310373481185E-16   8   4   3   2
 -0.2353067095304772E-15   8   4   3   3
 -0.1658635915086377E-16   8   4   4   1
 -0.3809374494284285E-16   8   4   4   2
 -0.2969919979131475E-15   8   4   4   3
  0.4540671992743344E-15   8   4   4   4
 -0.5900935399701808E-02   8   4   5   1
 -0.1110663925141568E-01   8   4   5   2
 -0.5321564069207441E-01   8   4   5   3
  0.2875874271425876E-01   8   4   5   4
  0.2596808505725498E-15   8   4   5   5
 -0.2878397985427908E-02   8   4   6   1
 -0.5417671247132258E-02   8   4   6   2
 -0.2595788338388905E-01   8   4   6   3
  0.1402813308146788E-01   8   4   6   4
  0.2030946172817656E-16   8   4   6   5
 -0.4976131310737394E-16   8   4   6   6
 -0.5317120628659797E-16   8   4   7   1
 -0.8426145523665265E-16   8   4   7   2
 -0.5719416161090571E-15   8   4   7   3
 -0.8839518653218501E-17   8   4   7   4
 -0.1632178053841280E-01   8   4   7   5
 -0.7961547964537604E-02   8   4   7   6
 -0.6405718565146042E-15   8   4   7   7
  0.9452041058356283E-02   8   4   8   1
 -0.1245297004473529E-01   8   4   8   2
  0.3003334392180108E-02   8   4   8   3
  0.6203443895235319E-01   8   4   8   4
 -0.2402315495010922E+00   8   5   1   1
  0.4912937681873690E-03   8   5   2   1
  0.1838209332120868E+00   8   5   2   2
  0.6083083915518437E-02   8   5   3   1
 -0.8155502854654752E-02   8   5   3   2
 -0.3923818015893518E-01   8   5   3   3
  0.1799105803999315E-02   8   5   4   1
 -0.1696518219659278E-02   8   5   4   2
 -0.5853144187768183E-01   8   5   4   3
  0.9415945244033332E-01   8   5   4   4
  0.7198090909291887E-16   8   5   5   1
 -0.1637462896220190E-16   8   5   5   2
  0.6987775800187107E-15   8   5   5   3
  0.6904821359010911E-15   8   5   5   4
  0.9818141663374275E-03   8   5   5   5
  0.5181667638802762E-16   8   5   6   1
  0.2878365517836975E-16   8   5   6   2
  0.3415037386783360E-15   8   5   6   3
 -0.1696084792591135E-15   8   5   6   4
  0.5403224530956619E-03   8   5   6   5
 -0.1233590307788207E-02   8   5   6   6
 -0.2076704007497827E-02   8   5   7   1
  0.5062360236894404E-02   8   5   7   2
 -0.3007246681181250E-01   8   5   7   3
 -0.7504137366817872E-01   8   5   7   4
  0.1459628294715171E-14   8   5   7   5
  0.4695894086615558E-15   8   5   7   6
 -0.1205550640430902E+00   8   5   7   7
 -0.1475415668840188E-15   8   5   8   1
  0.1776309965803234E-16   8   5   8   2
 -0.1135009321476723E-15   8   5   8   3
  0.1167705926631988E-15   8   5   8   4
  0.1320112666711831E+00   8   5   8   5
 -0.1171817620906528E+00   8   6   1   1
  0.2396465808921188E-03   8   6   2   1
  0.8966541200635499E-01   8   6   2   2
  0.2967247614420932E-02   8   6   3   1
 -0.3978146072938869E-02   8   6   3   2
 -0.1913986360993610E-01   8   6   3   3
  0.8775799379306844E-03   8   6   4   1
 -0.8275390755770381E-03   8   6   4   2
 -0.2855086066412853E-01   8   6   4   3
  0.4592973145019445E-01   8   6   4   4
  0.2700735605481143E-16   8   6   5   1
  0.1088944071906857E-16   8   6   5   2
  0.3467361437328915E-15   8   6   5   3
  0.2174204566465149E-15   8   6   5   4
 -0.6017289821525981E-03   8   6   5   5
  0.2033236481343659E-16   8   6   6   1
  0.2570637170304654E-16   8   6   6   2
  0.1776551613203098E-15   8   6   6   3
 -0.1418676165827400E-15   8   6   6   4
  0.1107702236416824E-02   8   6   6   5
  0.4789159212999173E-03   8   6   6   6
 -0.1012988658003925E-02   8   6   7   1
  0.2469352148495564E-02   8   6   7   2
 -0.1466895026377391E-01   8   6   7   3
 -0.3660418631275701E-01   8   6   7   4
  0.6554437161570324E-15   8   6   7   5
  0.2127075206468206E-15   8   6   7   6
 -0.5880516053307392E-01   8   6   7   7
 -0.4968359963047300E-16   8   6   8   1
  0.2435228434676140E-16   8   6   8   2
  0.3678995113532505E-16   8   6   8   3
  0.3867265037691195E-16   8   6   8   4
  0.5608446019432792E-01   8   6   8   5
  0.4439110129455760E-01   8   6   8   6
 -0.2044585069979337E-14   8   7   1   1
  0.4564367687319887E-17   8   7   2   1
  0.1666089491898273E-14   8   7   2   2
  0.5045213826339255E-16   8   7   3   1
 -0.7230846864529897E-16   8   7   3   2
 -0.3595463588916731E-15   8   7   3   3
 -0.2422731009516664E-17   8   7   4   1
 -0.1658266044302794E-16   8   7   4   2
 -0.6143155975063174E-15   8   7   4   3
  0.7692643039898974E-15   8   7   4   4
 -0.7310057878112714E-02   8   7   5   1
 -0.5330481239772329E-03   8   7   5   2
 -0.2818901308744309E-01   8   7   5   3
 -0.1739421100838020E-01   8   7   5   4
  0.5656713213474122E-15   8   7   5   5
 -0.3565749232025879E-02   8   7   6   1
 -0.2600138015863939E-03   8   7   6   2
 -0.1375022652954264E-01   8   7   6   3
 -0.8484665317156248E-02   8   7   6   4
  0.2165044720740072E-15   8   7   6   5
  0.1138670287385920E-15   8   7   6   6
 -0.7671869386991002E-16   8   7   7   1
  0.4099970698529700E-16   8   7   7   2
 -0.5334713738056029E-15   8   7   7   3
 -0.8818164496742980E-15   8   7   7   4
 -0.2476190860271162E-01   8   7   7   5
 -0.1207853043790258E-01   8   7   7   6
 -0.1440227746693018E-14   8   7   7   7
  0.1224514918582035E-01   8   7   8   1
 -0.1286093219327749E-03   8   7   8   2
  0.2830296866382383E-01   8   7   8   3
  0.1784489106840496E-01   8   7   8   4
  0.6835530361093473E-15   8   7   8   5
  0.4096600051156638E-15   8   7   8   6
  0.4956624080445667E-01   8   7   8   7
  0.7862742063730295E+00   8   8   1   1
 -0.2031904284798092E-03   8   8   2   1
  0.6508045253727247E+00   8   8   2   2
 -0.6449554634373664E-02   8   8   3   1
 -0.2890788084430801E-02   8   8   3   2
  0.5958543412723210E+00   8   8   3   3
 -0.3547171844663095E-02   8   8   4   1
  0.8007065050227490E-02   8   8   4   2
  0.3006694486353498E-01   8   8   4   3
  0.4854367222902480E+00   8   8   4   4
 -0.2982988426663186E-16   8   8   5   1
  0.1087498197521215E-15   8   8   5   2
  0.2959284801935236E-15   8   8   5   3
 -0.1316344321905388E-15   8   8   5   4
  0.5596857429054127E+00   8   8   5   5
  0.5843025062649987E-17   8   8   6   1
 -0.1904048178915443E-15   8   8   6   2
  0.1704835452911961E-16   8   8   6   3
  0.3613925760625532E-15   8   8   6   4
  0.1728351840971484E-01   8   8   6   5
  0.5326838829228647E+00   8   8   6   6
 -0.4716118112796458E-02   8   8   7   1
 -0.1959374543061334E-02   8   8   7   2
 -0.1971988029837134E-01   8   8   7   3
  0.2244120453064749E-01   8   8   7   4
 -0.2613320677430357E-15   8   8   7   5
  0.5173622337655664E-16   8   8   7   6
  0.5659517904424730E+00   8   8   7   7
  0.2108340459570588E-17   8   8   8   1
  0.9482174897331806E-17   8   8   8   2
 -0.3564731265124181E-16   8   8   8   3
 -0.1459585277932738E-15   8   8   8   4
 -0.4327404442389723E-01   8   8   8   5
 -0.2110850464352213E-01   8   8   8   6
 -0.3450893629928414E-15   8   8   8   7
  0.6012748956537570E+00   8   8   8   8
  0.1394224035506369E-15   9   1   1   1
  0.5261253882063128E-17   9   1   2   1
  0.1570675490807931E-15   9   1   2   2
 -0.3940402156640969E-17   9   1   3   1
  0.5500443385200531E-17   9   1   3   2
  0.1105580696902323E-15   9   1   3   3
 -0.3053105835685519E-16   9   1   4   1
  0.2678659776473698E-17   9   1   4   2
 -0.4295022768785334E-16   9   1   4   3
  0.8342187557467286E-16   9   1   4   4
  0.4987846691486856E-02   9   1   5   1
  0.2665907000214271E-03   9   1   5   2
  0.6871358460255210E-02   9   1   5   3
  0.2224787610723634E-02   9   1   5   4
  0.5154459227924574E-16   9   1   5   5
 -0.1022546613049575E-01   9   1   6   1
 -0.5465312673757486E-03   9   1   6   2
 -0.1408680890809214E-01   9   1   6   3
 -0.4560984282020814E-02   9   1   6   4
  0.4991222917292910E-16   9   1   6   5
  0.1678600268941003E-15   9   1   6   6
  0.4514990927139089E-16   9   1   7   1
  0.5151722653009229E-17   9   1   7   2
  0.4462726849864756E-16   9   1   7   3
 -0.1822386239147326E-17   9   1   7   4
  0.2922912146661634E-02   9   1   7   5
 -0.5992192825235699E-02   9   1   7   6
  0.1637287534104833E-15   9   1   7   7
 -0.1457307397067264E-16   9   1   8   1
  0.4399140816583885E-19   9   1   8   2
 -0.1410141000358910E-16   9   1   8   3
 -0.7801795529569432E-17   9   1   8   4
  0.1773844196154725E-17   9   1   8   5
 -0.1001629017471524E-17   9   1   8   6
 -0.9913847690144254E-17   9   1   8   7
  0.1162571320766691E-15   9   1   8   8
  0.1731616276911879E-01   9   1   9   1
  0.1472641895821013E-15   9   2   1   1
  0.3314791477620816E-17   9   2   2   1
 -0.4161232649530788E-16   9   2   2   2
 -0.4475853919319955E-18   9   2   3   1
  0.9427095512404997E-19   9   2   3   2
  0.5592725136983456E-16   9   2   3   3
 -0.3583014187582302E-17   9   2   4   1
  0.3614380796896344E-16   9   2   4   2
  0.5643430331987681E-16   9   2   4   3
 -0.7207586406446447E-16   9   2   4   4
 -0.1503452582230625E-03   9   2   5   1
 -0.5209734513135358E-02   9   2   5   2
 -0.5590560632178365E-02   9   2   5   3
  0.4446668101787800E-02   9   2   5   4
  0.1135425722504592E-16   9   2   5   5
  0.3082192458850989E-03   9   2   6   1
  0.1068035308780914E-01   9   2   6   2
  0.1146107567668278E-01   9   2   6   3
 -0.9116008747019583E-02   9   2   6   4
  0.1857972343410020E-17   9   2   6   5
  0.6168548968372071E-16   9   2   6   6
 -0.9131125189103235E-18   9   2   7   1
 -0.3997064950247356E-16   9   2   7   2
 -0.2974452483792897E-16   9   2   7   3
  0.6691221087475858E-16   9   2   7   4
  0.2421258022371178E-03   9   2   7   5